<?xml version="1.0" encoding="UTF-8"?>

<!-- generated on 2025-09-26 17:01:29 by Eclipse SUMO sumo Version 1.24.0
<sumoConfiguration xmlns:xsi="http://www.w3.org/2001/XMLSchema-instance" xsi:noNamespaceSchemaLocation="http://sumo.dlr.de/xsd/sumoConfiguration.xsd">

    <input>
        <net-file value="maps/city1.net.xml"/>
        <route-files value="maps/city1.rou.xml"/>
    </input>

    <output>
        <tripinfo-output value="maps/tripinfo.xml"/>
    </output>

    <time>
        <begin value="0"/>
        <end value="3600"/>
    </time>

    <processing>
        <time-to-teleport value="3000"/>
    </processing>

    <report>
        <verbose value="false"/>
        <no-step-log value="true"/>
    </report>

    <traci_server>
        <remote-port value="50797"/>
    </traci_server>

    <random_number>
        <seed value="43"/>
    </random_number>

</sumoConfiguration>
-->

<tripinfos xmlns:xsi="http://www.w3.org/2001/XMLSchema-instance" xsi:noNamespaceSchemaLocation="http://sumo.dlr.de/xsd/tripinfo_file.xsd">
    <tripinfo id="0" depart="0.00" departLane="gneE19_0" departPos="5.10" departSpeed="0.00" departDelay="0.00" arrival="49.00" arrivalLane="-gneE0_0" arrivalPos="92.80" arrivalSpeed="11.40" duration="49.00" routeLength="394.48" waitingTime="3.00" waitingCount="1" stopTime="0.00" timeLoss="15.57" rerouteNo="1" devices="tripinfo_0 routing_0" vType="DEFAULT_VEHTYPE" speedFactor="0.90" vaporized=""/>
    <tripinfo id="1" depart="5.00" departLane="-gneE31_0" departPos="5.10" departSpeed="0.00" departDelay="0.00" arrival="62.00" arrivalLane="-gneE20_0" arrivalPos="92.80" arrivalSpeed="13.50" duration="57.00" routeLength="694.36" waitingTime="0.00" waitingCount="0" stopTime="0.00" timeLoss="7.40" rerouteNo="1" devices="tripinfo_1 routing_1" vType="DEFAULT_VEHTYPE" speedFactor="1.02" vaporized=""/>
    <tripinfo id="7" depart="35.00" departLane="-gneE30_0" departPos="5.10" departSpeed="0.00" departDelay="0.00" arrival="62.00" arrivalLane="gneE27_0" arrivalPos="92.80" arrivalSpeed="14.00" duration="27.00" routeLength="294.79" waitingTime="0.00" waitingCount="0" stopTime="0.00" timeLoss="6.12" rerouteNo="1" devices="tripinfo_7 routing_7" vType="DEFAULT_VEHTYPE" speedFactor="1.08" vaporized=""/>
    <tripinfo id="8" depart="40.00" departLane="gneE35_0" departPos="5.10" departSpeed="0.00" departDelay="0.00" arrival="101.00" arrivalLane="-gneE0_0" arrivalPos="92.80" arrivalSpeed="12.49" duration="61.00" routeLength="684.16" waitingTime="0.00" waitingCount="0" stopTime="0.00" timeLoss="7.85" rerouteNo="1" devices="tripinfo_8 routing_8" vType="DEFAULT_VEHTYPE" speedFactor="0.97" vaporized=""/>
    <tripinfo id="5" depart="25.00" departLane="-gneE13_0" departPos="5.10" departSpeed="0.00" departDelay="0.00" arrival="131.00" arrivalLane="-gneE20_0" arrivalPos="92.80" arrivalSpeed="14.61" duration="106.00" routeLength="589.32" waitingTime="52.00" waitingCount="1" stopTime="0.00" timeLoss="64.77" rerouteNo="1" devices="tripinfo_5 routing_5" vType="DEFAULT_VEHTYPE" speedFactor="1.08" vaporized=""/>
    <tripinfo id="15" depart="75.00" departLane="-gneE36_0" departPos="5.10" departSpeed="0.00" departDelay="0.00" arrival="148.00" arrivalLane="gneE2_0" arrivalPos="185.60" arrivalSpeed="14.62" duration="73.00" routeLength="881.70" waitingTime="0.00" waitingCount="0" stopTime="0.00" timeLoss="11.55" rerouteNo="1" devices="tripinfo_15 routing_15" vType="DEFAULT_VEHTYPE" speedFactor="1.10" vaporized=""/>
    <tripinfo id="4" depart="20.00" departLane="-gneE30_0" departPos="5.10" departSpeed="0.00" departDelay="0.00" arrival="151.00" arrivalLane="gneE1_0" arrivalPos="85.60" arrivalSpeed="13.60" duration="131.00" routeLength="982.11" waitingTime="39.00" waitingCount="2" stopTime="0.00" timeLoss="58.86" rerouteNo="1" devices="tripinfo_4 routing_4" vType="DEFAULT_VEHTYPE" speedFactor="1.01" vaporized=""/>
    <tripinfo id="19" depart="95.00" departLane="-gneE25_0" departPos="5.10" departSpeed="0.00" departDelay="0.00" arrival="155.00" arrivalLane="-gneE22_0" arrivalPos="85.60" arrivalSpeed="13.78" duration="60.00" routeLength="569.75" waitingTime="2.00" waitingCount="1" stopTime="0.00" timeLoss="18.96" rerouteNo="1" devices="tripinfo_19 routing_19" vType="DEFAULT_VEHTYPE" speedFactor="1.06" vaporized=""/>
    <tripinfo id="11" depart="55.00" departLane="-gneE27_0" departPos="5.10" departSpeed="0.00" departDelay="0.00" arrival="161.00" arrivalLane="-gneE17_0" arrivalPos="92.80" arrivalSpeed="11.94" duration="106.00" routeLength="387.59" waitingTime="64.00" waitingCount="1" stopTime="0.00" timeLoss="73.10" rerouteNo="1" devices="tripinfo_11 routing_11" vType="DEFAULT_VEHTYPE" speedFactor="0.88" vaporized=""/>
    <tripinfo id="18" depart="90.00" departLane="gneE20_0" departPos="5.10" departSpeed="0.00" departDelay="0.00" arrival="179.00" arrivalLane="-gneE0_0" arrivalPos="92.80" arrivalSpeed="12.90" duration="89.00" routeLength="294.48" waitingTime="55.00" waitingCount="1" stopTime="0.00" timeLoss="65.11" rerouteNo="1" devices="tripinfo_18 routing_18" vType="DEFAULT_VEHTYPE" speedFactor="0.97" vaporized=""/>
    <tripinfo id="6" depart="30.00" departLane="gneE19_0" departPos="5.10" departSpeed="0.00" departDelay="0.00" arrival="185.00" arrivalLane="gneE18_0" arrivalPos="92.80" arrivalSpeed="12.33" duration="155.00" routeLength="678.29" waitingTime="85.00" waitingCount="1" stopTime="0.00" timeLoss="100.69" rerouteNo="1" devices="tripinfo_6 routing_6" vType="DEFAULT_VEHTYPE" speedFactor="0.96" vaporized=""/>
    <tripinfo id="22" depart="110.00" departLane="gneE19_0" departPos="5.10" departSpeed="0.00" departDelay="0.00" arrival="190.00" arrivalLane="gneE27_0" arrivalPos="92.80" arrivalSpeed="12.80" duration="80.00" routeLength="685.70" waitingTime="8.00" waitingCount="1" stopTime="0.00" timeLoss="26.80" rerouteNo="1" devices="tripinfo_22 routing_22" vType="DEFAULT_VEHTYPE" speedFactor="0.99" vaporized=""/>
    <tripinfo id="32" depart="160.00" departLane="-gneE30_0" departPos="5.10" departSpeed="0.00" departDelay="0.00" arrival="195.00" arrivalLane="-gneE24_0" arrivalPos="85.60" arrivalSpeed="14.64" duration="35.00" routeLength="282.43" waitingTime="6.00" waitingCount="1" stopTime="0.00" timeLoss="14.99" rerouteNo="1" devices="tripinfo_32 routing_32" vType="DEFAULT_VEHTYPE" speedFactor="1.10" vaporized=""/>
    <tripinfo id="14" depart="70.00" departLane="gneE0_0" departPos="5.10" departSpeed="0.00" departDelay="0.00" arrival="202.00" arrivalLane="gneE5_0" arrivalPos="85.60" arrivalSpeed="12.57" duration="132.00" routeLength="482.33" waitingTime="76.00" waitingCount="2" stopTime="0.00" timeLoss="93.45" rerouteNo="1" devices="tripinfo_14 routing_14" vType="DEFAULT_VEHTYPE" speedFactor="0.92" vaporized=""/>
    <tripinfo id="20" depart="100.00" departLane="gneE19_0" departPos="5.10" departSpeed="0.00" departDelay="0.00" arrival="202.00" arrivalLane="-gneE38_0" arrivalPos="296.80" arrivalSpeed="11.58" duration="102.00" routeLength="781.78" waitingTime="11.00" waitingCount="1" stopTime="0.00" timeLoss="31.46" rerouteNo="1" devices="tripinfo_20 routing_20" vType="DEFAULT_VEHTYPE" speedFactor="0.84" vaporized=""/>
    <tripinfo id="21" depart="105.00" departLane="-gneE36_0" departPos="5.10" departSpeed="0.00" departDelay="0.00" arrival="221.00" arrivalLane="-gneE20_0" arrivalPos="92.80" arrivalSpeed="13.66" duration="116.00" routeLength="789.32" waitingTime="40.00" waitingCount="1" stopTime="0.00" timeLoss="59.21" rerouteNo="1" devices="tripinfo_21 routing_21" vType="DEFAULT_VEHTYPE" speedFactor="1.04" vaporized=""/>
    <tripinfo id="2" depart="10.00" departLane="gneE22_0" departPos="5.10" departSpeed="0.00" departDelay="0.00" arrival="226.00" arrivalLane="gneE29_0" arrivalPos="98.02" arrivalSpeed="12.71" duration="216.00" routeLength="986.26" waitingTime="112.00" waitingCount="2" stopTime="0.00" timeLoss="137.84" rerouteNo="1" devices="tripinfo_2 routing_2" vType="DEFAULT_VEHTYPE" speedFactor="0.95" vaporized=""/>
    <tripinfo id="10" depart="50.00" departLane="-gneE33_0" departPos="5.10" departSpeed="0.00" departDelay="0.00" arrival="228.00" arrivalLane="-gneE19_0" arrivalPos="92.80" arrivalSpeed="14.53" duration="178.00" routeLength="1113.56" waitingTime="75.00" waitingCount="2" stopTime="0.00" timeLoss="102.98" rerouteNo="1" devices="tripinfo_10 routing_10" vType="DEFAULT_VEHTYPE" speedFactor="1.11" vaporized=""/>
    <tripinfo id="26" depart="130.00" departLane="gneE0_0" departPos="5.10" departSpeed="0.00" departDelay="0.00" arrival="228.00" arrivalLane="gneE29_0" arrivalPos="98.02" arrivalSpeed="15.03" duration="98.00" routeLength="1003.89" waitingTime="5.00" waitingCount="1" stopTime="0.00" timeLoss="33.44" rerouteNo="1" devices="tripinfo_26 routing_26" vType="DEFAULT_VEHTYPE" speedFactor="1.17" vaporized=""/>
    <tripinfo id="43" depart="215.00" departLane="-gneE30_0" departPos="5.10" departSpeed="0.00" departDelay="0.00" arrival="240.00" arrivalLane="gneE27_0" arrivalPos="92.80" arrivalSpeed="15.10" duration="25.00" routeLength="294.79" waitingTime="0.00" waitingCount="0" stopTime="0.00" timeLoss="5.81" rerouteNo="1" devices="tripinfo_43 routing_43" vType="DEFAULT_VEHTYPE" speedFactor="1.17" vaporized=""/>
    <tripinfo id="17" depart="85.00" departLane="gneE38_0" departPos="5.10" departSpeed="0.00" departDelay="0.00" arrival="241.00" arrivalLane="gneE25_0" arrivalPos="92.80" arrivalSpeed="8.12" duration="156.00" routeLength="583.77" waitingTime="96.00" waitingCount="2" stopTime="0.00" timeLoss="114.17" rerouteNo="1" devices="tripinfo_17 routing_17" vType="DEFAULT_VEHTYPE" speedFactor="1.04" vaporized=""/>
    <tripinfo id="25" depart="125.00" departLane="gneE8_0" departPos="5.10" departSpeed="0.00" departDelay="0.00" arrival="246.00" arrivalLane="gneE27_0" arrivalPos="92.80" arrivalSpeed="11.35" duration="121.00" routeLength="683.87" waitingTime="51.00" waitingCount="1" stopTime="0.00" timeLoss="63.44" rerouteNo="1" devices="tripinfo_25 routing_25" vType="DEFAULT_VEHTYPE" speedFactor="0.88" vaporized=""/>
    <tripinfo id="9" depart="45.00" departLane="gneE35_0" departPos="5.10" departSpeed="0.00" departDelay="0.00" arrival="252.00" arrivalLane="gneE29_0" arrivalPos="98.02" arrivalSpeed="10.41" duration="207.00" routeLength="1103.89" waitingTime="87.00" waitingCount="1" stopTime="0.00" timeLoss="107.55" rerouteNo="1" devices="tripinfo_9 routing_9" vType="DEFAULT_VEHTYPE" speedFactor="0.83" vaporized=""/>
    <tripinfo id="12" depart="60.00" departLane="gneE35_0" departPos="5.10" departSpeed="0.00" departDelay="0.00" arrival="255.00" arrivalLane="gneE27_0" arrivalPos="92.80" arrivalSpeed="10.36" duration="195.00" routeLength="984.05" waitingTime="80.00" waitingCount="2" stopTime="0.00" timeLoss="105.76" rerouteNo="1" devices="tripinfo_12 routing_12" vType="DEFAULT_VEHTYPE" speedFactor="0.82" vaporized=""/>
    <tripinfo id="16" depart="80.00" departLane="gneE35_0" departPos="5.10" departSpeed="0.00" departDelay="0.00" arrival="257.00" arrivalLane="gneE27_0" arrivalPos="92.80" arrivalSpeed="14.05" duration="177.00" routeLength="984.05" waitingTime="72.00" waitingCount="2" stopTime="0.00" timeLoss="111.16" rerouteNo="1" devices="tripinfo_16 routing_16" vType="DEFAULT_VEHTYPE" speedFactor="1.10" vaporized=""/>
    <tripinfo id="13" depart="65.00" departLane="gneE35_0" departPos="5.10" departSpeed="0.00" departDelay="0.00" arrival="264.00" arrivalLane="gneE30_0" arrivalPos="100.00" arrivalSpeed="12.69" duration="199.00" routeLength="1089.52" waitingTime="80.00" waitingCount="2" stopTime="0.00" timeLoss="114.31" rerouteNo="1" devices="tripinfo_13 routing_13" vType="DEFAULT_VEHTYPE" speedFactor="0.95" vaporized=""/>
    <tripinfo id="30" depart="150.00" departLane="gneE38_0" departPos="5.10" departSpeed="0.00" departDelay="0.00" arrival="278.00" arrivalLane="-gneE35_0" arrivalPos="292.80" arrivalSpeed="13.73" duration="128.00" routeLength="1096.03" waitingTime="29.00" waitingCount="1" stopTime="0.00" timeLoss="48.48" rerouteNo="1" devices="tripinfo_30 routing_30" vType="DEFAULT_VEHTYPE" speedFactor="1.01" vaporized=""/>
    <tripinfo id="31" depart="155.00" departLane="gneE19_0" departPos="5.10" departSpeed="0.00" departDelay="0.00" arrival="281.00" arrivalLane="-gneE38_0" arrivalPos="296.80" arrivalSpeed="10.18" duration="126.00" routeLength="781.78" waitingTime="30.00" waitingCount="1" stopTime="0.00" timeLoss="47.64" rerouteNo="1" devices="tripinfo_31 routing_31" vType="DEFAULT_VEHTYPE" speedFactor="0.75" vaporized=""/>
    <tripinfo id="27" depart="135.00" departLane="gneE35_0" departPos="5.10" departSpeed="0.00" departDelay="0.00" arrival="282.00" arrivalLane="gneE31_0" arrivalPos="94.82" arrivalSpeed="13.49" duration="147.00" routeLength="883.62" waitingTime="55.00" waitingCount="2" stopTime="0.00" timeLoss="80.71" rerouteNo="1" devices="tripinfo_27 routing_27" vType="DEFAULT_VEHTYPE" speedFactor="0.99" vaporized=""/>
    <tripinfo id="47" depart="235.00" departLane="-gneE1_0" departPos="5.10" departSpeed="0.00" departDelay="0.00" arrival="297.00" arrivalLane="-gneE35_0" arrivalPos="292.80" arrivalSpeed="13.06" duration="62.00" routeLength="681.91" waitingTime="0.00" waitingCount="0" stopTime="0.00" timeLoss="10.96" rerouteNo="1" devices="tripinfo_47 routing_47" vType="DEFAULT_VEHTYPE" speedFactor="1.02" vaporized=""/>
    <tripinfo id="34" depart="170.00" departLane="-gneE36_0" departPos="5.10" departSpeed="0.00" departDelay="0.00" arrival="298.00" arrivalLane="-gneE20_0" arrivalPos="92.80" arrivalSpeed="14.01" duration="128.00" routeLength="783.74" waitingTime="52.00" waitingCount="1" stopTime="0.00" timeLoss="69.42" rerouteNo="1" devices="tripinfo_34 routing_34" vType="DEFAULT_VEHTYPE" speedFactor="1.02" vaporized=""/>
    <tripinfo id="44" depart="220.00" departLane="gneE0_0" departPos="5.10" departSpeed="0.00" departDelay="0.00" arrival="300.00" arrivalLane="-gneE20_0" arrivalPos="92.80" arrivalSpeed="13.67" duration="80.00" routeLength="284.16" waitingTime="46.00" waitingCount="1" stopTime="0.00" timeLoss="57.50" rerouteNo="1" devices="tripinfo_44 routing_44" vType="DEFAULT_VEHTYPE" speedFactor="0.99" vaporized=""/>
    <tripinfo id="35" depart="175.00" departLane="gneE9_0" departPos="5.10" departSpeed="0.00" departDelay="0.00" arrival="324.00" arrivalLane="gneE10_0" arrivalPos="96.80" arrivalSpeed="13.55" duration="149.00" routeLength="1087.04" waitingTime="47.00" waitingCount="2" stopTime="0.00" timeLoss="66.42" rerouteNo="1" devices="tripinfo_35 routing_35" vType="DEFAULT_VEHTYPE" speedFactor="0.99" vaporized=""/>
    <tripinfo id="23" depart="115.00" departLane="-gneE29_0" departPos="5.10" departSpeed="0.00" departDelay="0.00" arrival="331.00" arrivalLane="gneE30_0" arrivalPos="100.00" arrivalSpeed="12.84" duration="216.00" routeLength="820.24" waitingTime="136.00" waitingCount="2" stopTime="0.00" timeLoss="154.68" rerouteNo="1" devices="tripinfo_23 routing_23" vType="DEFAULT_VEHTYPE" speedFactor="1.01" vaporized=""/>
    <tripinfo id="39" depart="195.00" departLane="gneE9_0" departPos="5.10" departSpeed="0.00" departDelay="0.00" arrival="349.00" arrivalLane="gneE14_0" arrivalPos="89.60" arrivalSpeed="15.13" duration="154.00" routeLength="677.76" waitingTime="83.00" waitingCount="3" stopTime="0.00" timeLoss="108.30" rerouteNo="1" devices="tripinfo_39 routing_39" vType="DEFAULT_VEHTYPE" speedFactor="1.11" vaporized=""/>
    <tripinfo id="40" depart="200.00" departLane="gneE5_0" departPos="5.10" departSpeed="0.00" departDelay="0.00" arrival="363.00" arrivalLane="gneE36_0" arrivalPos="292.80" arrivalSpeed="11.42" duration="163.00" routeLength="1076.53" waitingTime="50.00" waitingCount="1" stopTime="0.00" timeLoss="71.41" rerouteNo="1" devices="tripinfo_40 routing_40" vType="DEFAULT_VEHTYPE" speedFactor="0.89" vaporized=""/>
    <tripinfo id="33" depart="168.00" departLane="gneE13_0" departPos="5.10" departSpeed="0.00" departDelay="3.00" arrival="365.00" arrivalLane="gneE36_0" arrivalPos="292.80" arrivalSpeed="14.73" duration="197.00" routeLength="1076.74" waitingTime="94.00" waitingCount="2" stopTime="0.00" timeLoss="122.75" rerouteNo="1" devices="tripinfo_33 routing_33" vType="DEFAULT_VEHTYPE" speedFactor="1.09" vaporized=""/>
    <tripinfo id="3" depart="15.00" departLane="gneE38_0" departPos="5.10" departSpeed="0.00" departDelay="0.00" arrival="368.00" arrivalLane="-gneE13_0" arrivalPos="92.80" arrivalSpeed="6.21" duration="353.00" routeLength="973.13" waitingTime="246.00" waitingCount="3" stopTime="0.00" timeLoss="275.69" rerouteNo="1" devices="tripinfo_3 routing_3" vType="DEFAULT_VEHTYPE" speedFactor="0.94" vaporized=""/>
    <tripinfo id="41" depart="205.00" departLane="-gneE10_0" departPos="5.10" departSpeed="0.00" departDelay="0.00" arrival="373.00" arrivalLane="gneE30_0" arrivalPos="100.00" arrivalSpeed="13.05" duration="168.00" routeLength="1080.33" waitingTime="62.00" waitingCount="3" stopTime="0.00" timeLoss="90.23" rerouteNo="1" devices="tripinfo_41 routing_41" vType="DEFAULT_VEHTYPE" speedFactor="1.03" vaporized=""/>
    <tripinfo id="38" depart="190.00" departLane="-gneE22_0" departPos="5.10" departSpeed="0.00" departDelay="0.00" arrival="380.00" arrivalLane="-gneE38_0" arrivalPos="296.80" arrivalSpeed="13.10" duration="190.00" routeLength="883.56" waitingTime="100.00" waitingCount="3" stopTime="0.00" timeLoss="126.25" rerouteNo="1" devices="tripinfo_38 routing_38" vType="DEFAULT_VEHTYPE" speedFactor="1.02" vaporized=""/>
    <tripinfo id="68" depart="340.00" departLane="gneE7_0" departPos="5.10" departSpeed="0.00" departDelay="0.00" arrival="380.00" arrivalLane="-gneE17_0" arrivalPos="92.80" arrivalSpeed="11.83" duration="40.00" routeLength="377.06" waitingTime="0.00" waitingCount="0" stopTime="0.00" timeLoss="7.78" rerouteNo="1" devices="tripinfo_68 routing_68" vType="DEFAULT_VEHTYPE" speedFactor="0.90" vaporized=""/>
    <tripinfo id="46" depart="230.00" departLane="gneE19_0" departPos="5.10" departSpeed="0.00" departDelay="0.00" arrival="381.00" arrivalLane="-gneE19_0" arrivalPos="92.80" arrivalSpeed="14.80" duration="151.00" routeLength="974.65" waitingTime="53.00" waitingCount="1" stopTime="0.00" timeLoss="80.69" rerouteNo="1" devices="tripinfo_46 routing_46" vType="DEFAULT_VEHTYPE" speedFactor="1.07" vaporized=""/>
    <tripinfo id="69" depart="345.00" departLane="-gneE36_0" departPos="5.10" departSpeed="0.00" departDelay="0.00" arrival="390.00" arrivalLane="-gneE35_0" arrivalPos="292.80" arrivalSpeed="14.77" duration="45.00" routeLength="594.90" waitingTime="0.00" waitingCount="0" stopTime="0.00" timeLoss="5.09" rerouteNo="0" devices="tripinfo_69 routing_69" vType="DEFAULT_VEHTYPE" speedFactor="1.10" vaporized=""/>
    <tripinfo id="50" depart="250.00" departLane="-gneE26_0" departPos="5.10" departSpeed="0.00" departDelay="0.00" arrival="401.00" arrivalLane="-gneE7_0" arrivalPos="92.80" arrivalSpeed="14.68" duration="151.00" routeLength="389.32" waitingTime="111.00" waitingCount="1" stopTime="0.00" timeLoss="125.13" rerouteNo="1" devices="tripinfo_50 routing_50" vType="DEFAULT_VEHTYPE" speedFactor="1.14" vaporized=""/>
    <tripinfo id="60" depart="300.00" departLane="-gneE24_0" departPos="5.10" departSpeed="0.00" departDelay="0.00" arrival="401.00" arrivalLane="gneE27_0" arrivalPos="92.80" arrivalSpeed="13.17" duration="101.00" routeLength="681.90" waitingTime="30.00" waitingCount="2" stopTime="0.00" timeLoss="50.06" rerouteNo="1" devices="tripinfo_60 routing_60" vType="DEFAULT_VEHTYPE" speedFactor="1.03" vaporized=""/>
    <tripinfo id="24" depart="120.00" departLane="-gneE29_0" departPos="5.10" departSpeed="0.00" departDelay="0.00" arrival="403.00" arrivalLane="-gneE38_0" arrivalPos="296.80" arrivalSpeed="12.96" duration="283.00" routeLength="1211.05" waitingTime="161.00" waitingCount="2" stopTime="0.00" timeLoss="186.20" rerouteNo="1" devices="tripinfo_24 routing_24" vType="DEFAULT_VEHTYPE" speedFactor="0.94" vaporized=""/>
    <tripinfo id="29" depart="145.00" departLane="-gneE33_0" departPos="5.10" departSpeed="0.00" departDelay="0.00" arrival="408.00" arrivalLane="-gneE3_0" arrivalPos="185.60" arrivalSpeed="13.07" duration="263.00" routeLength="1006.36" waitingTime="168.00" waitingCount="1" stopTime="0.00" timeLoss="189.94" rerouteNo="1" devices="tripinfo_29 routing_29" vType="DEFAULT_VEHTYPE" speedFactor="1.03" vaporized=""/>
    <tripinfo id="42" depart="210.00" departLane="gneE20_0" departPos="5.10" departSpeed="0.00" departDelay="0.00" arrival="416.00" arrivalLane="gneE17_0" arrivalPos="92.80" arrivalSpeed="11.25" duration="206.00" routeLength="489.32" waitingTime="146.00" waitingCount="2" stopTime="0.00" timeLoss="163.58" rerouteNo="1" devices="tripinfo_42 routing_42" vType="DEFAULT_VEHTYPE" speedFactor="0.88" vaporized=""/>
    <tripinfo id="28" depart="140.00" departLane="-gneE30_0" departPos="5.10" departSpeed="0.00" departDelay="0.00" arrival="417.00" arrivalLane="-gneE0_0" arrivalPos="92.80" arrivalSpeed="13.35" duration="277.00" routeLength="991.17" waitingTime="176.00" waitingCount="3" stopTime="0.00" timeLoss="207.64" rerouteNo="1" devices="tripinfo_28 routing_28" vType="DEFAULT_VEHTYPE" speedFactor="1.04" vaporized=""/>
    <tripinfo id="70" depart="350.00" departLane="gneE38_0" departPos="5.10" departSpeed="0.00" departDelay="0.00" arrival="419.00" arrivalLane="-gneE24_0" arrivalPos="85.60" arrivalSpeed="13.95" duration="69.00" routeLength="683.56" waitingTime="5.00" waitingCount="1" stopTime="0.00" timeLoss="20.07" rerouteNo="1" devices="tripinfo_70 routing_70" vType="DEFAULT_VEHTYPE" speedFactor="1.07" vaporized=""/>
    <tripinfo id="59" depart="295.00" departLane="-gneE30_0" departPos="5.10" departSpeed="0.00" departDelay="0.00" arrival="420.00" arrivalLane="-gneE20_0" arrivalPos="92.80" arrivalSpeed="14.88" duration="125.00" routeLength="891.17" waitingTime="51.00" waitingCount="1" stopTime="0.00" timeLoss="68.49" rerouteNo="1" devices="tripinfo_59 routing_59" vType="DEFAULT_VEHTYPE" speedFactor="1.15" vaporized=""/>
    <tripinfo id="49" depart="245.00" departLane="-gneE33_0" departPos="5.10" departSpeed="0.00" departDelay="0.00" arrival="424.00" arrivalLane="-gneE0_0" arrivalPos="92.80" arrivalSpeed="12.57" duration="179.00" routeLength="1113.56" waitingTime="73.00" waitingCount="1" stopTime="0.00" timeLoss="95.80" rerouteNo="1" devices="tripinfo_49 routing_49" vType="DEFAULT_VEHTYPE" speedFactor="0.99" vaporized=""/>
    <tripinfo id="45" depart="225.00" departLane="-gneE33_0" departPos="5.10" departSpeed="0.00" departDelay="0.00" arrival="429.00" arrivalLane="gneE27_0" arrivalPos="92.80" arrivalSpeed="15.57" duration="204.00" routeLength="818.83" waitingTime="121.00" waitingCount="2" stopTime="0.00" timeLoss="152.92" rerouteNo="1" devices="tripinfo_45 routing_45" vType="DEFAULT_VEHTYPE" speedFactor="1.19" vaporized=""/>
    <tripinfo id="58" depart="290.00" departLane="-gneE33_0" departPos="5.10" departSpeed="0.00" departDelay="0.00" arrival="431.00" arrivalLane="gneE27_0" arrivalPos="92.80" arrivalSpeed="15.35" duration="141.00" routeLength="818.83" waitingTime="60.00" waitingCount="2" stopTime="0.00" timeLoss="89.35" rerouteNo="1" devices="tripinfo_58 routing_58" vType="DEFAULT_VEHTYPE" speedFactor="1.20" vaporized=""/>
    <tripinfo id="51" depart="255.00" departLane="-gneE23_0" departPos="5.10" departSpeed="0.00" departDelay="0.00" arrival="436.00" arrivalLane="gneE30_0" arrivalPos="100.00" arrivalSpeed="12.33" duration="181.00" routeLength="491.38" waitingTime="126.00" waitingCount="2" stopTime="0.00" timeLoss="141.51" rerouteNo="1" devices="tripinfo_51 routing_51" vType="DEFAULT_VEHTYPE" speedFactor="0.93" vaporized=""/>
    <tripinfo id="64" depart="320.00" departLane="-gneE3_0" departPos="5.10" departSpeed="0.00" departDelay="0.00" arrival="437.00" arrivalLane="-gneE19_0" arrivalPos="92.80" arrivalSpeed="13.53" duration="117.00" routeLength="482.12" waitingTime="69.00" waitingCount="1" stopTime="0.00" timeLoss="82.24" rerouteNo="1" devices="tripinfo_64 routing_64" vType="DEFAULT_VEHTYPE" speedFactor="1.06" vaporized=""/>
    <tripinfo id="63" depart="315.00" departLane="-gneE30_0" departPos="5.10" departSpeed="0.00" departDelay="0.00" arrival="440.00" arrivalLane="gneE29_0" arrivalPos="98.02" arrivalSpeed="13.70" duration="125.00" routeLength="804.31" waitingTime="38.00" waitingCount="2" stopTime="0.00" timeLoss="65.11" rerouteNo="1" devices="tripinfo_63 routing_63" vType="DEFAULT_VEHTYPE" speedFactor="1.00" vaporized=""/>
    <tripinfo id="48" depart="240.00" departLane="gneE38_0" departPos="5.10" departSpeed="0.00" departDelay="0.00" arrival="450.00" arrivalLane="gneE33_0" arrivalPos="98.02" arrivalSpeed="11.90" duration="210.00" routeLength="1304.37" waitingTime="71.00" waitingCount="2" stopTime="0.00" timeLoss="107.73" rerouteNo="1" devices="tripinfo_48 routing_48" vType="DEFAULT_VEHTYPE" speedFactor="0.95" vaporized=""/>
    <tripinfo id="78" depart="390.00" departLane="-gneE40_0" departPos="5.10" departSpeed="0.00" departDelay="0.00" arrival="461.00" arrivalLane="-gneE39_0" arrivalPos="96.80" arrivalSpeed="14.47" duration="71.00" routeLength="891.08" waitingTime="0.00" waitingCount="0" stopTime="0.00" timeLoss="9.42" rerouteNo="0" devices="tripinfo_78 routing_78" vType="DEFAULT_VEHTYPE" speedFactor="1.05" vaporized=""/>
    <tripinfo id="83" depart="415.00" departLane="gneE0_0" departPos="5.10" departSpeed="0.00" departDelay="0.00" arrival="473.00" arrivalLane="gneE36_0" arrivalPos="292.80" arrivalSpeed="13.74" duration="58.00" routeLength="689.32" waitingTime="0.00" waitingCount="0" stopTime="0.00" timeLoss="9.82" rerouteNo="1" devices="tripinfo_83 routing_83" vType="DEFAULT_VEHTYPE" speedFactor="1.07" vaporized=""/>
    <tripinfo id="93" depart="465.00" departLane="gneE9_0" departPos="5.10" departSpeed="0.00" departDelay="0.00" arrival="475.00" arrivalLane="gneE9_0" arrivalPos="89.60" arrivalSpeed="15.75" duration="10.00" routeLength="84.50" waitingTime="0.00" waitingCount="0" stopTime="0.00" timeLoss="3.95" rerouteNo="1" devices="tripinfo_93 routing_93" vType="DEFAULT_VEHTYPE" speedFactor="1.19" vaporized=""/>
    <tripinfo id="81" depart="409.00" departLane="gneE4_0" departPos="5.10" departSpeed="0.00" departDelay="4.00" arrival="498.00" arrivalLane="gneE25_0" arrivalPos="92.80" arrivalSpeed="5.52" duration="89.00" routeLength="480.39" waitingTime="34.00" waitingCount="2" stopTime="0.00" timeLoss="52.58" rerouteNo="1" devices="tripinfo_81 routing_81" vType="DEFAULT_VEHTYPE" speedFactor="0.97" vaporized=""/>
    <tripinfo id="87" depart="435.00" departLane="gneE38_0" departPos="5.10" departSpeed="0.00" departDelay="0.00" arrival="512.00" arrivalLane="-gneE24_0" arrivalPos="85.60" arrivalSpeed="13.80" duration="77.00" routeLength="683.56" waitingTime="9.00" waitingCount="1" stopTime="0.00" timeLoss="24.68" rerouteNo="1" devices="tripinfo_87 routing_87" vType="DEFAULT_VEHTYPE" speedFactor="1.01" vaporized=""/>
    <tripinfo id="85" depart="425.00" departLane="gneE17_0" departPos="5.10" departSpeed="0.00" departDelay="0.00" arrival="513.00" arrivalLane="gneE29_0" arrivalPos="98.02" arrivalSpeed="12.40" duration="88.00" routeLength="702.27" waitingTime="12.00" waitingCount="1" stopTime="0.00" timeLoss="30.42" rerouteNo="1" devices="tripinfo_85 routing_85" vType="DEFAULT_VEHTYPE" speedFactor="0.91" vaporized=""/>
    <tripinfo id="54" depart="270.00" departLane="gneE0_0" departPos="5.10" departSpeed="0.00" departDelay="0.00" arrival="515.00" arrivalLane="gneE30_0" arrivalPos="100.00" arrivalSpeed="12.32" duration="245.00" routeLength="983.94" waitingTime="139.00" waitingCount="3" stopTime="0.00" timeLoss="164.24" rerouteNo="1" devices="tripinfo_54 routing_54" vType="DEFAULT_VEHTYPE" speedFactor="0.92" vaporized=""/>
    <tripinfo id="77" depart="385.00" departLane="-gneE30_0" departPos="5.10" departSpeed="0.00" departDelay="0.00" arrival="515.00" arrivalLane="gneE32_0" arrivalPos="219.65" arrivalSpeed="12.54" duration="130.00" routeLength="803.44" waitingTime="44.00" waitingCount="2" stopTime="0.00" timeLoss="64.85" rerouteNo="1" devices="tripinfo_77 routing_77" vType="DEFAULT_VEHTYPE" speedFactor="0.94" vaporized=""/>
    <tripinfo id="79" depart="395.00" departLane="gneE0_0" departPos="5.10" departSpeed="0.00" departDelay="0.00" arrival="517.00" arrivalLane="gneE30_0" arrivalPos="100.00" arrivalSpeed="13.78" duration="122.00" routeLength="989.52" waitingTime="30.00" waitingCount="1" stopTime="0.00" timeLoss="48.84" rerouteNo="1" devices="tripinfo_79 routing_79" vType="DEFAULT_VEHTYPE" speedFactor="1.00" vaporized=""/>
    <tripinfo id="91" depart="455.00" departLane="gneE20_0" departPos="5.10" departSpeed="0.00" departDelay="0.00" arrival="521.00" arrivalLane="-gneE35_0" arrivalPos="292.80" arrivalSpeed="15.56" duration="66.00" routeLength="788.90" waitingTime="0.00" waitingCount="0" stopTime="0.00" timeLoss="14.69" rerouteNo="1" devices="tripinfo_91 routing_91" vType="DEFAULT_VEHTYPE" speedFactor="1.15" vaporized=""/>
    <tripinfo id="73" depart="365.00" departLane="gneE35_0" departPos="5.10" departSpeed="0.00" departDelay="0.00" arrival="529.00" arrivalLane="-gneE2_0" arrivalPos="185.60" arrivalSpeed="7.62" duration="164.00" routeLength="676.96" waitingTime="86.00" waitingCount="2" stopTime="0.00" timeLoss="106.40" rerouteNo="1" devices="tripinfo_73 routing_73" vType="DEFAULT_VEHTYPE" speedFactor="0.86" vaporized=""/>
    <tripinfo id="74" depart="370.00" departLane="-gneE7_0" departPos="5.10" departSpeed="0.00" departDelay="0.00" arrival="532.00" arrivalLane="-gneE20_0" arrivalPos="92.80" arrivalSpeed="11.78" duration="162.00" routeLength="487.80" waitingTime="114.00" waitingCount="1" stopTime="0.00" timeLoss="123.35" rerouteNo="1" devices="tripinfo_74 routing_74" vType="DEFAULT_VEHTYPE" speedFactor="0.93" vaporized=""/>